# LAMMPS data file.
# 2022-06-02 CDT 20:03:34 , timestamp = 1654218214.3614488
# 2022-06-02 CDT 19:23:28 , timestamp = 1654215808.7515304

 6 atoms
 4 bonds
 2 angles
 2 atom types
 1 bond types
 1 angle types
 0.0000000 7.7459493  xlo xhi
 0.0000000 4.4714812  ylo yhi
 0.0000000 7.3007792  zlo zhi
# 0.0000000 0.0000000 0.0000000  xy xz yz

 Masses

1 1.008  # H
2 15.9994  # O

 Atoms # full

1 1 2 -1.112800 0.000000 0.000000 0.000000
2 1 1 0.556400 0.033243 -0.006547 0.956574
3 1 1 0.556400 0.917712 0.005958 -0.272024
4 2 2 -1.112800 0.001577 -0.000038 2.698693
5 2 1 0.556400 -0.487649 -0.747956 3.041508
6 2 1 0.556400 -0.473188 0.765749 3.021839

 Bonds

1 1 1 2 
2 1 1 3 
3 1 4 5 
4 1 4 6 

 Angles

1 1 2 1 3 
2 1 5 4 6 

