# LAMMPS data file.
# 2023-03-17 CDT 07:38:09 , timestamp = 1679056689.2890944
# 2022-06-02 CDT 13:42:29 , timestamp = 1654195349.3583453

 36 atoms
 24 bonds
 12 angles
 2 atom types
 1 bond types
 1 angle types
 0.0000000 7.7370574  xlo xhi
 0.0000000 4.4669922  ylo yhi
 0.0000000 10.9418520  zlo zhi
# 0.0000000 0.0000000 0.0000000  xy xz yz

 Masses

1 1.008  # H
2 15.9994  # O

 Atoms # full

1 1 2 -1.112800 0.000000 0.000000 0.000000
2 1 1 0.556400 -0.031617 -0.008284 0.956645
3 1 1 0.556400 -0.918177 -0.002919 -0.270497
4 2 2 -1.112800 -0.000016 0.000001 2.735019
5 2 1 0.556400 -0.475553 0.755932 3.079467
6 2 1 0.556400 -0.478065 -0.757946 3.071528
7 1 2 -1.112800 3.836912 2.225212 0.000000
8 1 1 0.556400 3.805295 2.216928 0.956645
9 1 1 0.556400 2.918735 2.222293 -0.270497
10 2 2 -1.112800 3.836896 2.225213 2.735019
11 2 1 0.556400 3.361359 2.981144 3.079467
12 2 1 0.556400 3.358847 1.467266 3.071528
13 1 2 -1.112800 2.579019 0.000000 3.647284
14 1 1 0.556400 2.545776 -0.006547 4.603858
15 1 1 0.556400 1.661307 0.005958 3.375260
16 2 2 -1.112800 2.577442 -0.000038 6.345977
17 2 1 0.556400 3.066668 -0.747956 6.688792
18 2 1 0.556400 3.052207 0.765749 6.669123
19 1 2 -1.112800 6.415931 2.225212 3.647284
20 1 1 0.556400 6.382688 2.218665 4.603929
21 1 1 0.556400 5.498219 2.231170 3.376787
22 2 2 -1.112800 6.414354 2.225174 6.382303
23 2 1 0.556400 6.903580 1.477256 6.726751
24 2 1 0.556400 6.889119 2.990961 6.718812
25 1 2 -1.112800 0.000000 0.000000 7.294568
26 1 1 0.556400 0.031617 -0.008284 8.251213
27 1 1 0.556400 0.918177 -0.002919 7.024071
28 2 2 -1.112800 0.000016 0.000001 10.029587
29 2 1 0.556400 0.475553 0.755932 10.374035
30 2 1 0.556400 0.478065 -0.757946 10.366096
31 1 2 -1.112800 3.836912 2.225212 7.294568
32 1 1 0.556400 3.868529 2.216928 8.251213
33 1 1 0.556400 4.755089 2.222293 7.024071
34 2 2 -1.112800 3.836928 2.225213 10.029587
35 2 1 0.556400 4.312465 2.981144 10.374035
36 2 1 0.556400 4.314977 1.467266 10.366096

 Bonds

1 1 1 2 
2 1 1 3 
3 1 4 5 
4 1 4 6 
5 1 7 8 
6 1 7 9 
7 1 10 11 
8 1 10 12 
9 1 13 14 
10 1 13 15 
11 1 16 17 
12 1 16 18 
13 1 19 20 
14 1 19 21 
15 1 22 23 
16 1 22 24 
17 1 25 26 
18 1 25 27 
19 1 28 29 
20 1 28 30 
21 1 31 32 
22 1 31 33 
23 1 34 35 
24 1 34 36 

 Angles

1 1 2 1 3 
2 1 5 4 6 
3 1 8 7 9 
4 1 11 10 12 
5 1 14 13 15 
6 1 17 16 18 
7 1 20 19 21 
8 1 23 22 24 
9 1 26 25 27 
10 1 29 28 30 
11 1 32 31 33 
12 1 35 34 36 

