# LAMMPS data file.
# 2023-03-17 CDT 07:38:10 , timestamp = 1679056690.4079921
# 2022-06-02 CDT 13:42:29 , timestamp = 1654195349.3583453

 36 atoms
 24 bonds
 12 angles
 2 atom types
 1 bond types
 1 angle types
 0.0000000 7.7370574  xlo xhi
 0.0000000 4.4669922  ylo yhi
 0.0000000 10.9418520  zlo zhi
# 0.0000000 0.0000000 0.0000000  xy xz yz

 Masses

1 1.008  # H
2 15.9994  # O

 Atoms # full

1 1 2 -1.112800 1.289510 2.233496 0.000000
2 1 1 0.556400 1.321127 2.225212 0.956645
3 1 1 0.556400 2.207687 2.230577 -0.270497
4 2 2 -1.112800 1.289526 2.233497 2.735019
5 2 1 0.556400 1.765063 2.989428 3.079467
6 2 1 0.556400 1.767575 1.475550 3.071528
7 1 2 -1.112800 5.158038 0.000000 0.000000
8 1 1 0.556400 5.189655 -0.008284 0.956645
9 1 1 0.556400 6.076215 -0.002919 -0.270497
10 2 2 -1.112800 5.158054 0.000001 2.735019
11 2 1 0.556400 5.633591 0.755932 3.079467
12 2 1 0.556400 5.636103 -0.757946 3.071528
13 1 2 -1.112800 2.579019 0.000000 3.647284
14 1 1 0.556400 2.610636 -0.008284 4.603929
15 1 1 0.556400 3.497196 -0.002919 3.376787
16 2 2 -1.112800 2.579035 0.000001 6.382303
17 2 1 0.556400 3.054572 0.755932 6.726751
18 2 1 0.556400 3.057084 -0.757946 6.718812
19 1 2 -1.112800 6.415931 2.225212 3.647284
20 1 1 0.556400 6.447548 2.216928 4.603929
21 1 1 0.556400 7.334108 2.222293 3.376787
22 2 2 -1.112800 6.415947 2.225213 6.382303
23 2 1 0.556400 6.891484 2.981144 6.726751
24 2 1 0.556400 6.893996 1.467266 6.718812
25 1 2 -1.112800 0.000000 0.000000 7.294568
26 1 1 0.556400 0.033243 -0.006547 8.251142
27 1 1 0.556400 0.917712 0.005958 7.022544
28 2 2 -1.112800 0.001577 -0.000038 9.993261
29 2 1 0.556400 -0.487649 -0.747956 10.336076
30 2 1 0.556400 -0.473188 0.765749 10.316407
31 1 2 -1.112800 3.836912 2.225212 7.294568
32 1 1 0.556400 3.870155 2.218665 8.251213
33 1 1 0.556400 4.754624 2.231170 7.024071
34 2 2 -1.112800 3.838489 2.225174 10.029587
35 2 1 0.556400 3.349263 1.477256 10.374035
36 2 1 0.556400 3.363724 2.990961 10.366096

 Bonds

1 1 1 2 
2 1 1 3 
3 1 4 5 
4 1 4 6 
5 1 7 8 
6 1 7 9 
7 1 10 11 
8 1 10 12 
9 1 13 14 
10 1 13 15 
11 1 16 17 
12 1 16 18 
13 1 19 20 
14 1 19 21 
15 1 22 23 
16 1 22 24 
17 1 25 26 
18 1 25 27 
19 1 28 29 
20 1 28 30 
21 1 31 32 
22 1 31 33 
23 1 34 35 
24 1 34 36 

 Angles

1 1 2 1 3 
2 1 5 4 6 
3 1 8 7 9 
4 1 11 10 12 
5 1 14 13 15 
6 1 17 16 18 
7 1 20 19 21 
8 1 23 22 24 
9 1 26 25 27 
10 1 29 28 30 
11 1 32 31 33 
12 1 35 34 36 

