# LAMMPS data file.
 3 atoms
 2 bonds
 1 angles
 2 atom types
 1 bond types
 1 angle types
 -10.0000000 10.0000000  xlo xhi
 -10.0000000 10.0000000  ylo yhi
 -10.0000000 10.0000000  zlo zhi
 0.0000000 0.0000000 0.0000000  xy xz yz

 Masses

1 1.008  # H
2 15.9994  # O

 Atoms # full

1 1 2 -1.112800 0.000000  0.000000 0.000000
2 1 1  0.556400 0.132275  0.527897 0.787440
3 1 1  0.556400 0.204139 -0.894289 0.273510

 Bonds

1 1 1 2
2 1 1 3

 Angles

1 1 2 1 3
